
                                 *****************
                                 * O   R   C   A *
                                 *****************

                                            #,                                       
                                            ###                                      
                                            ####                                     
                                            #####                                    
                                            ######                                   
                                           ########,                                 
                                     ,,################,,,,,                         
                               ,,#################################,,                 
                          ,,##########################################,,             
                       ,#########################################, ''#####,          
                    ,#############################################,,   '####,        
                  ,##################################################,,,,####,       
                ,###########''''           ''''###############################       
              ,#####''   ,,,,##########,,,,          '''####'''          '####       
            ,##' ,,,,###########################,,,                        '##       
           ' ,,###''''                  '''############,,,                           
         ,,##''                                '''############,,,,        ,,,,,,###''
      ,#''                                            '''#######################'''  
     '                                                          ''''####''''         
             ,#######,   #######,   ,#######,      ##                                
            ,#'     '#,  ##    ##  ,#'     '#,    #''#        ,####,   ,####,        
            ##       ##  ##   ,#'  ##            #'  '#       #'       #'  '#        
            ##       ##  #######   ##           ,######,      #####,   #    #        
            '#,     ,#'  ##    ##  '#,     ,#' ,#      #,     #,   #   #,  ,#        
             '#######'   ##     ##  '#######'  #'      '#     '####' # '####'        



                #########################################################
                #                        -***-                          #
                #          Department of theory and spectroscopy        #
                #                                                       #
                #                      Frank Neese                      #
                #                                                       #
                #     Directorship, Architecture, Infrastructure        #
                #                    SHARK, DRIVERS                     #
                #        Core code/Algorithms in most modules           #
                #                                                       #
                #        Max Planck Institute fuer Kohlenforschung      #
                #                Kaiser Wilhelm Platz 1                 #
                #                 D-45470 Muelheim/Ruhr                 #
                #                      Germany                          #
                #                                                       #
                #                  All rights reserved                  #
                #                        -***-                          #
                #########################################################


                         Program Version 6.0.1  -  RELEASE   -


 With contributions from (in alphabetic order):
[Max-Planck-Institut fuer Kohlenforschung]                               
  Daniel Aravena         : Magnetic Suceptibility                        
  Michael Atanasov       : Ab Initio Ligand Field Theory (pilot matlab implementation)
  Alexander A. Auer      : GIAO ZORA, VPT2 properties, NMR spectrum      
  Ute Becker             : All parallelization in ORCA, NUMFREQ, NUMCALC 
  Giovanni Bistoni       : ED, misc. LED, open-shell LED, HFLD           
  Martin Brehm           : Molecular dynamics                            
  Dmytro Bykov           : pre 5.0 version of the SCF Hessian            
  Marcos Casanova-Páez   : Triplet and SCS-CIS(D). UHF-(DLPNO)-IP/EA/STEOM-CCSD. UHF-CVS-IP/STEOM-CCSD   
  Vijay G. Chilkuri      : MRCI spin determinant printing, contributions to CSF-ICE 
  Pauline Colinet        : FMM embedding                                 
  Dipayan Datta          : RHF DLPNO-CCSD density                        
  Achintya Kumar Dutta   : EOM-CC, STEOM-CC                              
  Nicolas Foglia         : Exact transition moments, OPA infrastructure, MCD improvements    
  Dmitry Ganyushin       : Spin-Orbit,Spin-Spin,Magnetic field MRCI      
  Miquel Garcia-Rates    : C-PCM and meta-GGA Hessian, CCSD/C-PCM, Gaussian charge scheme 
  Tiago L. C. Gouveia    : GS-ROHF, GS-ROCIS                             
  Yang Guo               : DLPNO-NEVPT2, F12-NEVPT2, CIM, IAO-localization        
  Andreas Hansen         : Spin unrestricted coupled pair/coupled cluster methods 
  Ingolf Harden          : AUTO-CI MPn and infrastructure                
  Benjamin Helmich-Paris : MC-RPA, TRAH-(SCF,CASSCF), AVAS, COSX integrals, SCF dyn. polar. 
  Lee Huntington         : MR-EOM, pCC                                   
  Robert Izsak           : Overlap fitted RIJCOSX, COSX-SCS-MP3, EOM     
  Riya Kayal             : Wick's Theorem for AUTO-CI, AUTO-CI UHF-CCSDT 
  Emily Kempfer          : AUTO-CI, RHF CISDT and CCSDT                  
  Christian Kollmar      : KDIIS, OOCD, Brueckner-CCSD(T), CCSD density, CASPT2, CASPT2-K, improved NEVPT2 
  Axel Koslowski         : Symmetry handling                             
  Simone Kossmann        : meta-GGA functionals, TD-DFT gradient, OOMP2, (MP2 Hessian; deprecated post 5.0) 
  Lucas Lang             : DCDCAS                                        
  Marvin Lechner         : AUTO-CI (C++ implementation), FIC-MRCC        
  Spencer Leger          : CASSCF response                               
  Dagmar Lenk            : GEPOL surface, SMD, ORCA-2-JSON               
  Dimitrios Liakos       : Extrapolation schemes; Compound Job, initial MDCI parallelization 
  Dimitrios Manganas     : Further ROCIS development; embedding schemes. LFT, Crystal Embedding 
  Dimitrios Pantazis     : SARC Basis sets                               
  Anastasios Papadopoulos: AUTO-CI, single reference methods and gradients 
  Taras Petrenko         : pre 6.0 DFT Hessian and TD-DFT gradient, (ASA, deprecated), ECA, 1-Electron XAS/XES, NRVS 
  Peter Pinski           : DLPNO-MP2, DLPNO-MP2 Gradient                 
  Christoph Reimann      : Effective Core Potentials                     
  Marius Retegan         : Local ZFS, SOC                                
  Christoph Riplinger    : Optimizer, TS searches, QM/MM, DLPNO-CCSD(T), (RO)-DLPNO pert. Triples 
  Michael Roemelt        : Original ROCIS implementation                 
  Masaaki Saitow         : Open-shell DLPNO-CCSD energy and density      
  Barbara Sandhoefer     : DKH picture change effects                    
  Kantharuban Sivalingam : CASSCF convergence/infrastructure, NEVPT2 and variants, FIC-MRCI 
  Bernardo de Souza      : ESD, SOC TD-DFT                               
  Georgi L. Stoychev     : AutoAux, RI-MP2 NMR, DLPNO-MP2 response, X2C  
  Van Anh Tran           : RI-MP2 g-tensors                              
  Willem Van den Heuvel  : Paramagnetic NMR                              
  Zikuan Wang            : NOTCH, Electric field optimization            
  Frank Wennmohs         : Technical directorship and infrastructure     
  Hang Xu                : AUTO-CI-Response properties                   
                                                                         
[FACCTs GmbH]                                                            
  Markus Bursch, Miquel Garcia-Rates, Christoph Riplinger, Bernardo de Souza, Georgi L. Stoychev 
                                                                 
  APM, Basis sets (HGBS, AHGBS, def-TZVP (Ac-Lr), def2-XVPD (La-Lu)), CI-OPT, improved COSX, DLPNO-Multilevel,           
  DOCKER, DRACO, updates on ESD, GOAT, IRC, LR-CPCM, MBIS, meta-GGA TD-DFT gradient, ML-optimized integration grids, 
  MM, NACMEs, nearIR, NEB, NEB-TS, NL-DFT gradient (VV10), 2- and 3-layer-ONIOM, interface openCOSMO-RS, QMMM,   
  Crystal-QMMM, SF, symmetry and pop. for TD-DFT, r2SCAN hybrids, SOLVATOR                                   
                                                                         
[Other institutions]                                                     
  V. Asgeirsson          : NEB                                           
  Christoph Bannwarth    : sTDA-DFT, sTD-DFT, PBEh-3c, B97-3c, D3        
  Sebastian Ehlert       : rSCAN, r2SCAN, r2SCAN-3c, D4, dhf basis sets  
  Marvin Friede          : D4 for Fr, Ra, Ac-Lr                          
  Lars Goerigk           : TD-DFT with DH, B97 family of functionals     
  Stefan Grimme          : VdW corrections, initial TS optimization, DFT functionals, gCP, sTDA/sTD-DF 
  Waldemar Hujo          : DFT-NL                                        
  H. Jonsson             : NEB                                           
  Holger Kruse           : gCP                                           
  Marcel Mueller         : wB97X-3c, vDZP basis set                      
  Hagen Neugebauer       : wr2SCAN                                       
  Tobias Risthaus        : range-separated hybrid DFT                    
  Lukas Wittmann         : regularized MP2, r2SCAN double-hybrids, wr2SCAN        
                                                                         
We gratefully acknowledge several colleagues who have allowed us to      
interface, adapt or use parts of their codes:                            
  Ed Valeev, F. Pavosevic, A. Kumar             : LibInt (2-el integral package), F12 methods 
  Garnet Chan, S. Sharma, J. Yang, R. Olivares  : DMRG                   
  Ulf Ekstrom                                   : XCFun DFT Library      
  Mihaly Kallay                                 : mrcc  (arbitrary order and MRCC methods)
  Frank Weinhold                                : gennbo (NPA and NBO analysis)           
  Simon Mueller                                 : openCOSMO-RS                            
  Christopher J. Cramer and Donald G. Truhlar   : smd solvation model                     
  S Lehtola, MJT Oliveira, MAL Marques          : LibXC Library                           
  Liviu Ungur et al                             : ANISO software                          


 Your calculation uses the libint2 library for the computation of 2-el integrals
 For citations please refer to: http://libint.valeyev.net

 Your ORCA version has been built with support for libXC version: 6.2.2
 For citations please refer to: https://libxc.gitlab.io

 This ORCA versions uses:
   CBLAS   interface :  Fast vector & matrix operations
   LAPACKE interface :  Fast linear algebra routines
   SCALAPACK package :  Parallel linear algebra routines
   Shared memory     :  Shared parallel matrices
   BLAS/LAPACK       :  OpenBLAS 0.3.27  USE64BITINT DYNAMIC_ARCH NO_AFFINITY Cooperlake SINGLE_THREADED
        Core in use  :  Cooperlake
   Copyright (c) 2011-2014, The OpenBLAS Project


NOTE: MaxCore=500 MB was set to SCF,MP2,MDCI,CIPSI,MRCI and CIS
      => If you want to overwrite this, your respective input block should be placed after the MaxCore statement


***************************************
The coordinates will be read from file: crest_conformers_0000_preopt.xyz
***************************************


Your calculation utilizes the atom-pairwise dispersion correction
based on EEQ partial charges (D4)


Your calculation utilizes the SMD solvation module
Please cite in your paper:
A.V. Marenich, C.J. Cramer, D.G. Truhlar J. Phys. Chem. B, 113, (2009), 6378 

Warning: RI is on but no J-basis has been assigned. Assigning Def2/J (nothing to worry about!)
================================================================================

cite the ECPs for I  [Def2-ECP] as follows:
Ce-Yb(ecp-28): M. Dolg, H. Stoll, H.Preuss, J. Chem. Phys., 1989, 90, 1730-1734.
Y-Cd(ecp-28), Hf-Hg(ecp-46): D. Andrae,U. Haeussermann, M. Dolg, H. Stoll, H. Preuss, Theor. Chim. Acta, 1990, 77, 123-141.
In-Sb(ecp-28), Tl-Bi(ecp-46): B. Metz, H. Stoll, M. Dolg, J. Chem. Phys., 2000, 113, 2563-2569.
Te-Xe(ecp-28), Po-Rn(ecp-46): K. A. Peterson, D. Figgen, E. Goll, H. Stoll, M. Dolg, J. Chem. Phys., 2003, 119, 11113-11123.
Rb(ecp-28), Cs(ecp-46): T. Leininger, A. Nicklass, W. Kuechle, H. Stoll, M. Dolg, A. Bergner, Chem. Phys. Lett., 1996, 255, 274-280.
Sr(ecp-28), Ba(ecp-46): M. Kaupp, P. V. Schleyer, H. Stoll and H. Preuss, J. Chem. Phys., 1991, 94, 1360-1366.
La(ecp-46): M. Dolg, H. Stoll, A. Savin, H. Preuss, Theor. Chim. Acta, 1989, 75, 173-194.
Lu(ecp-28): X. Cao, M. Dolg, J. Chem. Phys., 2001, 115, 7348-7355.

ECP parameters for I  [Def2-ECP] have been obtained from:
TURBOMOLE (7.0.2)

----- Orbital basis set information -----
Your calculation utilizes the basis: def2-SVP
   F. Weigend and R. Ahlrichs, Phys. Chem. Chem. Phys. 7, 3297 (2005).

----- AuxJ basis set information -----
Your calculation utilizes the auxiliary basis: def2/J
   F. Weigend, Phys. Chem. Chem. Phys. 8, 1057 (2006).

================================================================================
                                        WARNINGS
                       Please study these warnings very carefully!
================================================================================


WARNING: Geometry Optimization
  ===> : Switching off AutoStart
         For restart on a previous wavefunction, please use MOREAD

================================================================================
                                       INPUT FILE
================================================================================
NAME = /scratch/hbxr153/781493/crest_conformers_0000_optTS.inp
|  1> 
|  2>                     ! wB97X-D4 def2-SVP smd(acetonitrile) optTS freq DEFGRID3 xyzfile 
|  3>                     %maxcore 500
|  4>                     %pal nprocs 16 end
|  5>                     %geom
|  6>                         InHess Read
|  7>                         InHessName "crest_conformers_0000_preopt.hess"
|  8>                         ReCalc_Hess 10
|  9>                         TS_Mode {B 1 0} end
| 10>                         modify_internal
| 11>                             {B 21 0 A} 
| 12>                             {B 0 1 A} 
| 13>                         end
| 14>                     end
| 15>                     * xyzfile 0 1 crest_conformers_0000_preopt.xyz
| 16>                                               ****END OF INPUT****
================================================================================

                       *****************************
                       * Geometry Optimization Run *
                       *****************************

Geometry optimization settings:
Update method            Update   .... Bofill
Choice of coordinates    CoordSys .... (2022) Redundant Internals
Initial Hessian          InHess   .... Read
Max. no of cycles        MaxIter  .... 141

Convergence Tolerances:
Energy Change            TolE     ....  5.0000e-06 Eh
Max. Gradient            TolMAXG  ....  3.0000e-04 Eh/bohr
RMS Gradient             TolRMSG  ....  1.0000e-04 Eh/bohr
Max. Displacement        TolMAXD  ....  4.0000e-03 bohr
RMS Displacement         TolRMSD  ....  2.0000e-03 bohr
Strict Convergence                .... False

------------------------------------------------------------------------------
                        ORCA OPTIMIZATION COORDINATE SETUP
------------------------------------------------------------------------------

The optimization will be done in redundant internal coordinates (2022)
Making redundant internal coordinates   ...  (2022 redundants) Bond  21,  0 is already included
Bond   1,  0 is already included
done
Following TS mode number                ...    internal coordinate number:  1
Evaluating the initial hessian          ... (Reading Exact Hessian)...  
InHessName: crest_conformers_0000_preopt.hess	The file <crest_conformers_0000_preopt.hess> is opened as a .hess file
done
done
Evaluating the coordinates              ...  done
Calculating the B-matrix                .... done
Calculating the G-matrix                .... done
Diagonalizing the G-matrix              .... done
Small eigenvalue found = 3.919e-03
Small eigenvalue found = 1.024e-02
Small eigenvalue found = 1.284e-02
Small eigenvalue found = 2.407e-02
The first mode is                       ....  131
The number of degrees of freedom        ....  135

    -----------------------------------------------------------------
                    Redundant Internal Coordinates


    -----------------------------------------------------------------
         Definition                    Initial Value    d2E/dq (diagonal element)
    -----------------------------------------------------------------
      1. B(I   1,C   0)                  2.5903         0.002806   
      2. B(H   2,I   1)                  2.8479         0.017604   
      3. B(H   2,C   0)                  1.0872         0.298851   
      4. B(H   3,C   0)                  1.0875         0.293317   
      5. B(H   3,I   1)                  2.8408         0.017672   
      6. B(H   4,C   0)                  1.0875         0.300704   
      7. B(H   4,I   1)                  2.8491         0.017955   
      8. B(C   6,C   5)                  1.5103         0.285064   
      9. B(C   7,C   6)                  1.4119         0.408928   
     10. B(B   8,C   7)                  1.5673         0.277068   
     11. B(O   9,B   8)                  1.3733         0.314626   
     12. B(C  10,O   9)                  1.4510         0.256045   
     13. B(C  11,C  10)                  1.5206         0.309573   
     14. B(C  12,C  10)                  1.5280         0.298741   
     15. B(C  13,C  10)                  1.5674         0.230077   
     16. B(C  14,C  13)                  1.5210         0.309350   
     17. B(C  15,C  13)                  1.5282         0.298310   
     18. B(O  16,C  13)                  1.4483         0.260579   
     19. B(O  16,B   8)                  1.3741         0.314562   
     20. B(C  17,C   7)                  1.4091         0.390921   
     21. B(C  18,C  17)                  1.3875         0.431962   
     22. B(C  19,C  18)                  1.3978         0.418473   
     23. B(C  20,H   4)                  2.6886         0.019825   
     24. B(C  20,C  19)                  1.4074         0.308335   
     25. B(C  20,C   6)                  1.4098         0.328828   
     26. B(N  21,H   3)                  2.4317         0.028187   
     27. B(N  21,C   0)                  2.2137         0.001459   
     28. B(N  21,C  20)                  1.4224         0.269356   
     29. B(N  21,H   2)                  2.4345         0.020986   
     30. B(N  21,H   4)                  2.4242         0.029650   
     31. B(C  22,H   3)                  2.6680         0.011449   
     32. B(C  22,N  21)                  1.4639         0.258557   
     33. B(C  23,C  22)                  1.5141         0.232175   
     34. B(O  24,C  23)                  1.4248         0.295507   
     35. B(O  24,C  19)                  1.3555         0.375555   
     36. B(H  25,H   4)                  2.6987         0.010148   
     37. B(H  25,H   2)                  2.3697         0.017395   
     38. B(H  25,C   5)                  1.1021         0.333180   
     39. B(H  25,C   0)                  2.8531         0.012115   
     40. B(H  26,C   5)                  1.0945         0.364972   
     41. B(H  27,C   5)                  1.1043         0.339823   
     42. B(H  28,C  11)                  1.1013         0.347105   
     43. B(H  29,C  11)                  1.0987         0.353676   
     44. B(H  30,C  11)                  1.1013         0.348396   
     45. B(H  31,C  12)                  1.1011         0.347621   
     46. B(H  32,C  12)                  1.1002         0.350437   
     47. B(H  33,C  12)                  1.1012         0.347418   
     48. B(H  34,C  14)                  1.1013         0.348254   
     49. B(H  35,C  14)                  1.1013         0.347192   
     50. B(H  36,C  14)                  1.0987         0.353536   
     51. B(H  37,C  15)                  1.1002         0.350354   
     52. B(H  38,C  15)                  1.1011         0.347647   
     53. B(H  39,C  15)                  1.1012         0.347317   
     54. B(H  40,C  17)                  1.0935         0.366637   
     55. B(H  41,C  18)                  1.0933         0.366905   
     56. B(H  42,C   0)                  2.5849         0.030646   
     57. B(H  42,H   2)                  2.3487         0.010863   
     58. B(H  42,N  21)                  1.0189         0.349792   
     59. B(H  43,C  22)                  1.1046         0.337211   
     60. B(H  44,H   3)                  2.3682         0.014012   
     61. B(H  44,C  22)                  1.1000         0.349757   
     62. B(H  45,C  23)                  1.0984         0.354455   
     63. B(H  46,H   3)                  2.3374         0.015903   
     64. B(H  46,C  23)                  1.1042         0.326129   
     65. A(H   2,C   0,H   3)          119.2996         0.014170   
     66. A(I   1,C   0,H   3)           91.8108         0.010387   
     67. A(H   2,C   0,N  21)           88.1490         0.004060   
     68. A(H   4,C   0,N  21)           87.5454         0.007743   
     69. A(I   1,C   0,H   2)           92.2268         0.012047   
     70. A(H   3,C   0,N  21)           87.9791         0.008850   
     71. A(H   3,C   0,H   4)          120.1506         0.013520   
     72. A(H   2,C   0,H   4)          120.1466         0.010880   
     73. A(I   1,C   0,H   4)           92.2903         0.010779   
     74. A(H  25,C   5,H  27)          107.0398         0.055190   
     75. A(C   6,C   5,H  25)          111.0614         0.078066   
     76. A(C   6,C   5,H  27)          111.0729         0.101570   
     77. A(H  25,C   5,H  26)          108.3217         0.052499   
     78. A(H  26,C   5,H  27)          107.7610         0.063235   
     79. A(C   6,C   5,H  26)          111.4061         0.114012   
     80. A(C   7,C   6,C  20)          119.6642         0.084263   
     81. A(C   5,C   6,C  20)          117.8834         0.093947   
     82. A(C   5,C   6,C   7)          122.4522         0.117927   
     83. A(C   6,C   7,C  17)          118.5974         0.085683   
     84. A(B   8,C   7,C  17)          115.8586         0.153078   
     85. A(C   6,C   7,B   8)          125.5440         0.159862   
     86. A(C   7,B   8,O   9)          127.0205         0.117638   
     87. A(O   9,B   8,O  16)          112.2180         0.093370   
     88. A(C   7,B   8,O  16)          120.7440         0.116104   
     89. A(B   8,O   9,C  10)          107.5361         0.080892   
     90. A(C  12,C  10,C  13)          113.0058         0.062584   
     91. A(C  11,C  10,C  13)          114.8398         0.060476   
     92. A(O   9,C  10,C  13)          101.8953         0.039778   
     93. A(C  11,C  10,C  12)          110.5417         0.065876   
     94. A(O   9,C  10,C  12)          106.8140         0.041741   
     95. A(O   9,C  10,C  11)          109.0278         0.040744   
     96. A(H  29,C  11,H  30)          108.7823         0.090364   
     97. A(H  28,C  11,H  30)          108.0290         0.094679   
     98. A(C  10,C  11,H  30)          110.3675         0.098320   
     99. A(H  28,C  11,H  29)          108.1372         0.050034   
    100. A(C  10,C  11,H  29)          111.6952         0.116588   
    101. A(C  10,C  11,H  28)          109.7301         0.119019   
    102. A(H  31,C  12,H  33)          108.1507         0.099086   
    103. A(H  32,C  12,H  33)          108.6454         0.092842   
    104. A(C  10,C  12,H  33)          111.3894         0.103055   
    105. A(H  31,C  12,H  32)          108.2164         0.047633   
    106. A(C  10,C  12,H  32)          111.4144         0.115551   
    107. A(C  10,C  12,H  31)          108.9195         0.119817   
    108. A(C  10,C  13,C  14)          114.7326         0.059407   
    109. A(C  15,C  13,O  16)          106.8743         0.040731   
    110. A(C  14,C  13,O  16)          109.1218         0.043650   
    111. A(C  10,C  13,O  16)          101.9806         0.040037   
    112. A(C  14,C  13,C  15)          110.4926         0.057305   
    113. A(C  10,C  13,C  15)          112.9555         0.060920   
    114. A(H  35,C  14,H  36)          108.1549         0.099121   
    115. A(H  34,C  14,H  36)          108.7206         0.092089   
    116. A(C  13,C  14,H  36)          111.6845         0.102148   
    117. A(C  13,C  14,H  35)          109.7249         0.122590   
    118. A(C  13,C  14,H  34)          110.3943         0.114769   
    119. A(H  34,C  14,H  35)          108.0629         0.047217   
    120. A(C  13,C  15,H  37)          111.4955         0.115110   
    121. A(H  37,C  15,H  39)          108.6453         0.092249   
    122. A(H  38,C  15,H  39)          108.1206         0.098802   
    123. A(C  13,C  15,H  39)          111.3780         0.102592   
    124. A(H  37,C  15,H  38)          108.2739         0.047577   
    125. A(C  13,C  15,H  38)          108.8216         0.119753   
    126. A(B   8,O  16,C  13)          107.5749         0.080880   
    127. A(C   7,C  17,C  18)          121.8467         0.084938   
    128. A(C  18,C  17,H  40)          119.1922         0.083335   
    129. A(C   7,C  17,H  40)          118.9610         0.084131   
    130. A(C  17,C  18,C  19)          119.5881         0.080137   
    131. A(C  19,C  18,H  41)          118.4941         0.077182   
    132. A(C  17,C  18,H  41)          121.9177         0.076491   
    133. A(C  18,C  19,C  20)          119.8839         0.080452   
    134. A(C  20,C  19,O  24)          122.7719         0.090472   
    135. A(C  18,C  19,O  24)          117.3324         0.113056   
    136. A(C   6,C  20,N  21)          120.5399         0.052848   
    137. A(C   6,C  20,C  19)          120.4181         0.065922   
    138. A(C  19,C  20,N  21)          119.0233         0.058941   
    139. A(C   0,N  21,H  42)           99.4795         0.006161   
    140. A(C   0,N  21,C  22)          108.9752         0.015000   
    141. A(C   0,N  21,C  20)          110.8992         0.012967   
    142. A(C  22,N  21,H  42)          111.0383         0.016807   
    143. A(C  20,N  21,H  42)          111.5924         0.015916   
    144. A(C  20,N  21,C  22)          113.9091         0.024696   
    145. A(H  43,C  22,H  44)          108.3479         0.014809   
    146. A(C  23,C  22,H  44)          109.9661         0.039493   
    147. A(N  21,C  22,H  44)          109.1837         0.030302   
    148. A(C  23,C  22,H  43)          109.7849         0.030408   
    149. A(N  21,C  22,H  43)          110.9581         0.047722   
    150. A(N  21,C  22,C  23)          108.5923         0.052285   
    151. A(H  45,C  23,H  46)          108.4740         0.034411   
    152. A(O  24,C  23,H  46)          109.2559         0.061058   
    153. A(C  22,C  23,H  46)          110.8189         0.046026   
    154. A(O  24,C  23,H  45)          106.6142         0.051258   
    155. A(C  22,C  23,H  45)          110.7320         0.062101   
    156. A(C  22,C  23,O  24)          110.8233         0.070291   
    157. A(C  19,O  24,C  23)          116.7160         0.081776   
    158. D(C   7,C   6,C   5,H  26)     -1.7332         0.013204   
    159. D(C   7,C   6,C   5,H  25)    119.1159         0.013291   
    160. D(C  20,C   6,C   5,H  26)    178.1102         0.014306   
    161. D(C   7,C   6,C   5,H  27)   -121.8779         0.027028   
    162. D(C  20,C   6,C   5,H  25)    -61.0407         0.016075   
    163. D(B   8,C   7,C   6,C  20)   -179.7387         0.005712   
    164. D(B   8,C   7,C   6,C   5)      0.1020         0.006783   
    165. D(C  17,C   7,C   6,C   5)   -179.9802         0.008792   
    166. D(C  17,C   7,C   6,C  20)      0.1790         0.006598   
    167. D(O  16,B   8,C   7,C   6)   -164.6509         0.007038   
    168. D(O  16,B   8,C   7,C  17)     15.4293         0.007515   
    169. D(O   9,B   8,C   7,C   6)     16.9962         0.006093   
    170. D(O   9,B   8,C   7,C  17)   -162.9236         0.005605   
    171. D(C  10,O   9,B   8,O  16)     10.1490         0.012944   
    172. D(C  10,O   9,B   8,C   7)   -171.3801         0.010788   
    173. D(C  13,C  10,O   9,B   8)    -24.1181         0.015753   
    174. D(C  12,C  10,O   9,B   8)     94.6256         0.036938   
    175. D(C  11,C  10,O   9,B   8)   -145.9049         0.037193   
    176. D(H  29,C  11,C  10,C  13)    -60.7793         0.017333   
    177. D(H  29,C  11,C  10,C  12)    169.9218         0.018845   
    178. D(H  28,C  11,C  10,O   9)    -67.1146         0.017493   
    179. D(H  29,C  11,C  10,O   9)     52.7932         0.017483   
    180. D(H  28,C  11,C  10,C  12)     50.0139         0.018680   
    181. D(H  28,C  11,C  10,C  13)    179.3129         0.016754   
    182. D(H  32,C  12,C  10,C  13)    -72.5255         0.017894   
    183. D(H  32,C  12,C  10,C  11)     57.7504         0.016744   
    184. D(H  32,C  12,C  10,O   9)    176.2366         0.019671   
    185. D(H  31,C  12,C  10,C  13)    168.1739         0.018030   
    186. D(H  31,C  12,C  10,C  11)    -61.5501         0.017257   
    187. D(H  31,C  12,C  10,O   9)     56.9361         0.019768   
    188. D(C  14,C  13,C  10,O   9)    146.8143         0.021468   
    189. D(C  15,C  13,C  10,C  12)    160.4294         0.023999   
    190. D(C  15,C  13,C  10,C  11)     32.3598         0.021710   
    191. D(C  15,C  13,C  10,O   9)    -85.3283         0.022798   
    192. D(C  14,C  13,C  10,C  12)     32.5719         0.022512   
    193. D(C  14,C  13,C  10,C  11)    -95.4976         0.021591   
    194. D(H  35,C  14,C  13,C  15)     50.0378         0.018190   
    195. D(H  35,C  14,C  13,C  10)    179.1302         0.017722   
    196. D(H  34,C  14,C  13,O  16)    173.8144         0.017845   
    197. D(H  34,C  14,C  13,C  15)    -68.9560         0.017538   
    198. D(H  34,C  14,C  13,C  10)     60.1363         0.016778   
    199. D(H  35,C  14,C  13,O  16)    -67.1918         0.018248   
    200. D(H  38,C  15,C  13,O  16)     56.7086         0.021701   
    201. D(H  38,C  15,C  13,C  14)    -61.8992         0.016865   
    202. D(H  38,C  15,C  13,C  10)    168.0579         0.018861   
    203. D(H  37,C  15,C  13,O  16)    176.0670         0.021461   
    204. D(H  37,C  15,C  13,C  14)     57.4592         0.016447   
    205. D(H  37,C  15,C  13,C  10)    -72.5837         0.018656   
    206. D(B   8,O  16,C  13,C  15)     94.5747         0.036016   
    207. D(B   8,O  16,C  13,C  14)   -145.9288         0.035745   
    208. D(B   8,O  16,C  13,C  10)    -24.1764         0.017154   
    209. D(C  13,O  16,B   8,O   9)     10.1996         0.013847   
    210. D(C  13,O  16,B   8,C   7)   -168.3799         0.010743   
    211. D(H  40,C  17,C   7,B   8)     -0.2358         0.007453   
    212. D(H  40,C  17,C   7,C   6)    179.8386         0.007839   
    213. D(C  18,C  17,C   7,B   8)    179.6767         0.006530   
    214. D(C  18,C  17,C   7,C   6)     -0.2490         0.008276   
    215. D(H  41,C  18,C  17,H  40)      0.1678         0.009669   
    216. D(H  41,C  18,C  17,C   7)   -179.7445         0.008807   
    217. D(C  19,C  18,C  17,H  40)   -179.7261         0.008837   
    218. D(C  19,C  18,C  17,C   7)      0.3616         0.008843   
    219. D(C  20,C  19,C  18,H  41)    179.7008         0.007079   
    220. D(C  20,C  19,C  18,C  17)     -0.4017         0.007360   
    221. D(O  24,C  19,C  18,H  41)      0.9156         0.009707   
    222. D(O  24,C  19,C  18,C  17)   -179.1869         0.009116   
    223. D(N  21,C  20,C  19,O  24)     -2.5063         0.008431   
    224. D(N  21,C  20,C  19,C  18)    178.7773         0.007070   
    225. D(C   6,C  20,C  19,O  24)    179.0568         0.009865   
    226. D(C   6,C  20,C  19,C  18)      0.3403         0.006691   
    227. D(N  21,C  20,C   6,C   7)   -178.6424         0.007862   
    228. D(N  21,C  20,C   6,C   5)      1.5097         0.009089   
    229. D(C  19,C  20,C   6,C   7)     -0.2293         0.006478   
    230. D(C  19,C  20,C   6,C   5)    179.9228         0.010300   
    231. D(C   0,N  21,C  20,C  19)   -101.0782         0.012459   
    232. D(H  42,N  21,C  20,C  19)    149.0008         0.010596   
    233. D(H  42,N  21,C  20,C   6)    -32.5642         0.010191   
    234. D(C  22,N  21,C  20,C  19)     22.2895         0.008751   
    235. D(C  22,N  21,C  20,C   6)   -159.2755         0.009719   
    236. D(H  42,N  21,C   0,H   4)    123.7843         0.011148   
    237. D(H  42,N  21,C   0,H   3)   -115.9135         0.011936   
    238. D(H  42,N  21,C   0,H   2)      3.4979         0.011232   
    239. D(C  22,N  21,C   0,H   4)   -119.9656         0.014144   
    240. D(C  22,N  21,C   0,H   3)      0.3366         0.012389   
    241. D(C  22,N  21,C   0,H   2)    119.7480         0.014992   
    242. D(C  20,N  21,C   0,H   4)      6.1951         0.013916   
    243. D(C   0,N  21,C  20,C   6)     77.3568         0.013640   
    244. D(C  20,N  21,C   0,H   3)    126.4973         0.015634   
    245. D(C  20,N  21,C   0,H   2)   -114.0913         0.014543   
    246. D(H  44,C  22,N  21,C   0)    -45.0727         0.012301   
    247. D(H  44,C  22,N  21,H  42)     63.5207         0.011264   
    248. D(H  44,C  22,N  21,C  20)   -169.4796         0.014421   
    249. D(H  43,C  22,N  21,C   0)   -164.4242         0.011917   
    250. D(H  43,C  22,N  21,H  42)    -55.8309         0.011596   
    251. D(H  43,C  22,N  21,C  20)     71.1689         0.013222   
    252. D(C  23,C  22,N  21,C   0)     74.8270         0.013193   
    253. D(C  23,C  22,N  21,H  42)   -176.5796         0.013471   
    254. D(C  23,C  22,N  21,C  20)    -49.5799         0.015332   
    255. D(H  46,C  23,C  22,N  21)    -61.6122         0.036812   
    256. D(H  45,C  23,C  22,H  44)    -62.6258         0.017414   
    257. D(H  45,C  23,C  22,H  43)     56.4924         0.020951   
    258. D(H  45,C  23,C  22,N  21)    177.9631         0.018063   
    259. D(O  24,C  23,C  22,H  44)    179.2720         0.019029   
    260. D(O  24,C  23,C  22,H  43)    -61.6098         0.025728   
    261. D(O  24,C  23,C  22,N  21)     59.8609         0.017646   
    262. D(C  19,O  24,C  23,H  46)     80.3730         0.023701   
    263. D(C  19,O  24,C  23,H  45)   -162.5935         0.027673   
    264. D(C  19,O  24,C  23,C  22)    -42.0148         0.018340   
    265. D(C  23,O  24,C  19,C  20)     13.4421         0.008215   
    266. D(C  23,O  24,C  19,C  18)   -167.8107         0.009506   
    -----------------------------------------------------------------

Number of atoms                         .... 47
Number of degrees of freedom            .... 266


         *************************************************************
         *                GEOMETRY OPTIMIZATION CYCLE   1            *
         *************************************************************
---------------------------------
CARTESIAN COORDINATES (ANGSTROEM)
---------------------------------
  C     -2.702508   -0.267800    0.506565
  I     -4.289011    1.548006   -0.439717
  H     -2.548208    0.287237    1.428555
  H     -3.484548   -1.022235    0.464095
  H     -2.007456   -0.154332   -0.322045
  C      0.663930    0.131936    1.726469
  C      0.865169   -0.949915    0.691948
  C      2.028720   -1.030252   -0.103799
  B      3.247479   -0.047033   -0.037612
  O      3.549314    0.828620    0.976288
  C      4.637689    1.671146    0.516813
  C      5.534718    2.009828    1.697028
  C      4.004262    2.938188   -0.056165
  C      5.303595    0.769751   -0.578984
  C      5.902281    1.531120   -1.751667
  C      6.322066   -0.213701   -0.003634
  O      4.179564   -0.014696   -1.046796
  C      2.131376   -2.073844   -1.045103
  C      1.127506   -3.018463   -1.203271
  C     -0.025723   -2.938231   -0.417459
  C     -0.156917   -1.907763    0.532190
  N     -1.349285   -1.827928    1.303608
  C     -2.082068   -3.091873    1.395731
  C     -2.240805   -3.660562    0.001536
  O     -0.969580   -3.894273   -0.597902
  H     -0.223524    0.742519    1.493549
  H      1.532423    0.795451    1.784737
  H      0.503879   -0.302317    2.729160
  H      4.989669    2.652833    2.405799
  H      5.858360    1.107223    2.233342
  H      6.426535    2.558338    1.355621
  H      3.380689    3.408106    0.720213
  H      4.769747    3.664080   -0.368480
  H      3.361636    2.710235   -0.920853
  H      6.688076    2.218837   -1.401752
  H      6.359233    0.822772   -2.460345
  H      5.140439    2.111102   -2.290602
  H      7.242778    0.298618    0.313106
  H      6.585365   -0.947784   -0.780928
  H      5.909221   -0.760750    0.858329
  H      3.028805   -2.140139   -1.666395
  H      1.207737   -3.831001   -1.930355
  H     -1.172027   -1.439632    2.228762
  H     -1.544582   -3.814466    2.035314
  H     -3.070839   -2.904881    1.839929
  H     -2.756010   -4.630095    0.033411
  H     -2.824379   -2.975091   -0.637799

----------------------------
CARTESIAN COORDINATES (A.U.)
----------------------------
  NO LB      ZA    FRAG     MASS         X           Y           Z
   0 C     6.0000    0    12.011   -5.107000   -0.506070    0.957269
   1 I    25.0000*   0   126.900   -8.105057    2.925307   -0.830945
   2 H     1.0000    0     1.008   -4.815415    0.542800    2.699578
   3 H     1.0000    0     1.008   -6.584841   -1.931745    0.877012
   4 H     1.0000    0     1.008   -3.793541   -0.291646   -0.608577
   5 C     6.0000    0    12.011    1.254645    0.249323    3.262554
   6 C     6.0000    0    12.011    1.634932   -1.795079    1.307592
   7 C     6.0000    0    12.011    3.833726   -1.946894   -0.196151
   8 B     5.0000    0    10.810    6.136846   -0.088879   -0.071077
   9 O     8.0000    0    15.999    6.707231    1.565865    1.844918
  10 C     6.0000    0    12.011    8.763962    3.158008    0.976635
  11 C     6.0000    0    12.011   10.459101    3.798024    3.206919
  12 C     6.0000    0    12.011    7.566958    5.552372   -0.106137
  13 C     6.0000    0    12.011   10.022341    1.454618   -1.094121
  14 C     6.0000    0    12.011   11.153695    2.893398   -3.310171
  15 C     6.0000    0    12.011   11.946973   -0.403836   -0.006867
  16 O     8.0000    0    15.999    7.898232   -0.027772   -1.978158
  17 C     6.0000    0    12.011    4.027717   -3.918998   -1.974958
  18 C     6.0000    0    12.011    2.130677   -5.704068   -2.273852
  19 C     6.0000    0    12.011   -0.048609   -5.552451   -0.788883
  20 C     6.0000    0    12.011   -0.296530   -3.605149    1.005693
  21 N     7.0000    0    14.007   -2.549780   -3.454283    2.463461
  22 C     6.0000    0    12.011   -3.934538   -5.842793    2.637549
  23 C     6.0000    0    12.011   -4.234507   -6.917459    0.002903
  24 O     8.0000    0    15.999   -1.832240   -7.359109   -1.129870
  25 H     1.0000    0     1.008   -0.422400    1.403158    2.822399
  26 H     1.0000    0     1.008    2.895861    1.503185    3.372665
  27 H     1.0000    0     1.008    0.952193   -0.571295    5.157365
  28 H     1.0000    0     1.008    9.429108    5.013128    4.546301
  29 H     1.0000    0     1.008   11.070697    2.092349    4.220405
  30 H     1.0000    0     1.008   12.144392    4.834558    2.561753
  31 H     1.0000    0     1.008    6.388576    6.440387    1.361006
  32 H     1.0000    0     1.008    9.013515    6.924108   -0.696326
  33 H     1.0000    0     1.008    6.352572    5.121601   -1.740160
  34 H     1.0000    0     1.008   12.638631    4.192994   -2.648928
  35 H     1.0000    0     1.008   12.017209    1.554814   -4.649379
  36 H     1.0000    0     1.008    9.714022    3.989405   -4.328610
  37 H     1.0000    0     1.008   13.686866    0.564306    0.591684
  38 H     1.0000    0     1.008   12.444537   -1.791052   -1.475740
  39 H     1.0000    0     1.008   11.166809   -1.437609    1.622007
  40 H     1.0000    0     1.008    5.723612   -4.044276   -3.149030
  41 H     1.0000    0     1.008    2.282293   -7.239543   -3.647842
  42 H     1.0000    0     1.008   -2.214810   -2.720510    4.211749
  43 H     1.0000    0     1.008   -2.918836   -7.208296    3.846187
  44 H     1.0000    0     1.008   -5.803045   -5.489429    3.476963
  45 H     1.0000    0     1.008   -5.208104   -8.749612    0.063138
  46 H     1.0000    0     1.008   -5.337303   -5.622107   -1.205265
* core charge reduced due to ECP

--------------------------------
INTERNAL COORDINATES (ANGSTROEM)
--------------------------------
 C      0   0   0     0.000000000000     0.00000000     0.00000000
 I      1   0   0     2.590288669732     0.00000000     0.00000000
 H      1   2   0     1.087171095561    92.22680385     0.00000000
 H      1   2   3     1.087456660476    91.81081597   119.42080911
 H      1   2   3     1.087459361499    92.29029752   239.69850610
 C      3   1   2     3.229659194855   101.23520778   226.95429816
 C      6   3   1     1.510342226896    95.95680455   346.32626892
 C      7   6   3     1.411920343236   122.45220049   148.37941578
 B      8   7   6     1.567313969487   125.54395797     0.10201723
 O      9   8   7     1.373268795614   127.02052371    16.99615138
 C     10   9   8     1.451043985806   107.53613145   188.61994548
 C     11  10   9     1.520616653816   109.02778729   214.09507979
 C     11  10   9     1.528048097303   106.81401400    94.62558193
 C     11  10   9     1.567391027121   101.89529280   335.88189454
 C     14  11  10     1.520952034367   114.73259308   146.81425628
 C     14  11  10     1.528230110575   112.95546306   274.67167410
 O      9   8   7     1.374147003113   120.74396810   195.34908253
 C      8   7   6     1.409140499757   118.59741687   180.01976235
 C     18   8   7     1.387471251795   121.84671486   359.75104403
 C     19  18   8     1.397809858252   119.58814865     0.36163632
 C     20  19  18     1.407447850637   119.88393860   359.59827319
 N     21  20  19     1.422393005775   119.02334626   178.77730233
 C     22  21  20     1.463903552225   113.90906131    22.28950175
 C     23  22  21     1.514061847192   108.59233122   310.42013445
 O     20  19  18     1.355523333899   117.33235952   180.81314970
 H      6   3   1     1.102106264468    32.11302284   107.21969494
 H      6   3   1     1.094499110179   139.90366717   120.24750294
 H      6   3   1     1.104346100260    87.62260151   235.38036296
 H     12  11  10     1.101312884593   109.73006041   292.88536237
 H     12  11  10     1.098667828360   111.69515118    52.79317601
 H     12  11  10     1.101254205045   110.36747098   173.94651870
 H     13  11  10     1.101103506929   108.91951285    56.93605555
 H     13  11  10     1.100194149417   111.41441086   176.23657131
 H     13  11  10     1.101188098862   111.38937619   297.73219194
 H     15  14  11     1.101302478442   110.39430229    60.13629197
 H     15  14  11     1.101265961866   109.72492289   179.13015162
 H     15  14  11     1.098741524544   111.68446748   299.04996271
 H     16  14  11     1.100229480045   111.49553097   287.41633729
 H     16  14  11     1.101086285828   108.82163174   168.05793444
 H     16  14  11     1.101219204400   111.37801642    48.96066945
 H     18   8   7     1.093516381481   118.96103203   179.83855420
 H     19  18   8     1.093301178384   121.91767957   180.25552656
 H     22  21  20     1.018874016782   111.59240229   149.00081268
 H     23  22  21     1.104581079702   110.95814124    71.16887346
 H     23  22  21     1.099975724431   109.18369515   190.52043102
 H     24  23  22     1.098384097268   110.73200671   177.96312394
 H     24  23  22     1.104164377306   110.81886385   298.38779594

---------------------------
INTERNAL COORDINATES (A.U.)
---------------------------
 C      0   0   0     0.000000000000     0.00000000     0.00000000
 I      1   0   0     4.894936193592     0.00000000     0.00000000
 H      1   2   0     2.054455631325    92.22680385     0.00000000
 H      1   2   3     2.054995270808    91.81081597   119.42080911
 H      1   2   3     2.055000375002    92.29029752   239.69850610
 C      3   1   2     6.103171384176   101.23520778   226.95429816
 C      6   3   1     2.854133177330    95.95680455   346.32626892
 C      7   6   3     2.668142771627   122.45220049   148.37941578
 B      8   7   6     2.961794168199   125.54395797     0.10201723
 O      9   8   7     2.595101931970   127.02052371    16.99615138
 C     10   9   8     2.742075741447   107.53613145   188.61994548
 C     11  10   9     2.873549030392   109.02778729   214.09507979
 C     11  10   9     2.887592423363   106.81401400    94.62558193
 C     11  10   9     2.961939786024   101.89529280   335.88189454
 C     14  11  10     2.874182807783   114.73259308   146.81425628
 C     14  11  10     2.887936378598   112.95546306   274.67167410
 O      9   8   7     2.596761503632   120.74396810   195.34908253
 C      8   7   6     2.662889628758   118.59741687   180.01976235
 C     18   8   7     2.621940684582   121.84671486   359.75104403
 C     19  18   8     2.641477819391   119.58814865     0.36163632
 C     20  19  18     2.659690985480   119.88393860   359.59827319
 N     21  20  19     2.687933235721   119.02334626   178.77730233
 C     22  21  20     2.766376800179   113.90906131    22.28950175
 C     23  22  21     2.861162241012   108.59233122   310.42013445
 O     20  19  18     2.561567869208   117.33235952   180.81314970
 H      6   3   1     2.082679010324    32.11302284   107.21969494
 H      6   3   1     2.068303572058   139.90366717   120.24750294
 H      6   3   1     2.086911686555    87.62260151   235.38036296
 H     12  11  10     2.081179739639   109.73006041   292.88536237
 H     12  11  10     2.076181307751   111.69515118    52.79317601
 H     12  11  10     2.081068851364   110.36747098   173.94651870
 H     13  11  10     2.080784073195   108.91951285    56.93605555
 H     13  11  10     2.079065636541   111.41441086   176.23657131
 H     13  11  10     2.080943928783   111.38937619   297.73219194
 H     15  14  11     2.081160074864   110.39430229    60.13629197
 H     15  14  11     2.081091068536   109.72492289   179.13015162
 H     15  14  11     2.076320573356   111.68446748   299.04996271
 H     16  14  11     2.079132401752   111.49553097   287.41633729
 H     16  14  11     2.080751530032   108.82163174   168.05793444
 H     16  14  11     2.081002709730   111.37801642    48.96066945
 H     18   8   7     2.066446483955   118.96103203   179.83855420
 H     19  18   8     2.066039809039   121.91767957   180.25552656
 H     22  21  20     1.925392856687   111.59240229   149.00081268
 H     23  22  21     2.087355733348   110.95814124    71.16887346
 H     23  22  21     2.078652873137   109.18369515   190.52043102
 H     24  23  22     2.075645133692   110.73200671   177.96312394
 H     24  23  22     2.086568279941   110.81886385   298.38779594

---------------------
BASIS SET INFORMATION
---------------------
There are 6 groups of distinct atoms

 Group   1 Type C   : 7s4p1d contracted to 3s2p1d pattern {511/31/1}
 Group   2 Type I   : 10s7p6d contracted to 4s4p2d pattern {6211/4111/51}
 Group   3 Type H   : 4s1p contracted to 2s1p pattern {31/1}
 Group   4 Type B   : 7s4p1d contracted to 3s2p1d pattern {511/31/1}
 Group   5 Type O   : 7s4p1d contracted to 3s2p1d pattern {511/31/1}
 Group   6 Type N   : 7s4p1d contracted to 3s2p1d pattern {511/31/1}

Atom   0C    basis set group =>   1
Atom   1I    basis set group =>   2
Atom   2H    basis set group =>   3
Atom   3H    basis set group =>   3
Atom   4H    basis set group =>   3
Atom   5C    basis set group =>   1
Atom   6C    basis set group =>   1
Atom   7C    basis set group =>   1
Atom   8B    basis set group =>   4
Atom   9O    basis set group =>   5
Atom  10C    basis set group =>   1
Atom  11C    basis set group =>   1
Atom  12C    basis set group =>   1
Atom  13C    basis set group =>   1
Atom  14C    basis set group =>   1
Atom  15C    basis set group =>   1
Atom  16O    basis set group =>   5
Atom  17C    basis set group =>   1
Atom  18C    basis set group =>   1
Atom  19C    basis set group =>   1
Atom  20C    basis set group =>   1
Atom  21N    basis set group =>   6
Atom  22C    basis set group =>   1
Atom  23C    basis set group =>   1
Atom  24O    basis set group =>   5
Atom  25H    basis set group =>   3
Atom  26H    basis set group =>   3
Atom  27H    basis set group =>   3
Atom  28H    basis set group =>   3
Atom  29H    basis set group =>   3
Atom  30H    basis set group =>   3
Atom  31H    basis set group =>   3
Atom  32H    basis set group =>   3
Atom  33H    basis set group =>   3
Atom  34H    basis set group =>   3
Atom  35H    basis set group =>   3
Atom  36H    basis set group =>   3
Atom  37H    basis set group =>   3
Atom  38H    basis set group =>   3
Atom  39H    basis set group =>   3
Atom  40H    basis set group =>   3
Atom  41H    basis set group =>   3
Atom  42H    basis set group =>   3
Atom  43H    basis set group =>   3
Atom  44H    basis set group =>   3
Atom  45H    basis set group =>   3
Atom  46H    basis set group =>   3
---------------------------------
AUXILIARY/J BASIS SET INFORMATION
---------------------------------
There are 6 groups of distinct atoms

 Group   1 Type C   : 12s5p4d2f1g contracted to 6s4p3d1f1g pattern {711111/2111/211/2/1}
 Group   2 Type I   : 11s5p5d3f1g contracted to 8s4p3d2f1g pattern {41111111/2111/311/21/1}
 Group   3 Type H   : 5s2p1d contracted to 3s1p1d pattern {311/2/1}
 Group   4 Type B   : 12s5p4d2f1g contracted to 6s4p3d1f1g pattern {711111/2111/211/2/1}
 Group   5 Type O   : 12s5p4d2f1g contracted to 6s4p3d1f1g pattern {711111/2111/211/2/1}
 Group   6 Type N   : 12s5p4d2f1g contracted to 6s4p3d1f1g pattern {711111/2111/211/2/1}

Atom   0C    basis set group =>   1
Atom   1I    basis set group =>   2
Atom   2H    basis set group =>   3
Atom   3H    basis set group =>   3
Atom   4H    basis set group =>   3
Atom   5C    basis set group =>   1
Atom   6C    basis set group =>   1
Atom   7C    basis set group =>   1
Atom   8B    basis set group =>   4
Atom   9O    basis set group =>   5
Atom  10C    basis set group =>   1
Atom  11C    basis set group =>   1
Atom  12C    basis set group =>   1
Atom  13C    basis set group =>   1
Atom  14C    basis set group =>   1
Atom  15C    basis set group =>   1
Atom  16O    basis set group =>   5
Atom  17C    basis set group =>   1
Atom  18C    basis set group =>   1
Atom  19C    basis set group =>   1
Atom  20C    basis set group =>   1
Atom  21N    basis set group =>   6
Atom  22C    basis set group =>   1
Atom  23C    basis set group =>   1
Atom  24O    basis set group =>   5
Atom  25H    basis set group =>   3
Atom  26H    basis set group =>   3
Atom  27H    basis set group =>   3
Atom  28H    basis set group =>   3
Atom  29H    basis set group =>   3
Atom  30H    basis set group =>   3
Atom  31H    basis set group =>   3
Atom  32H    basis set group =>   3
Atom  33H    basis set group =>   3
Atom  34H    basis set group =>   3
Atom  35H    basis set group =>   3
Atom  36H    basis set group =>   3
Atom  37H    basis set group =>   3
Atom  38H    basis set group =>   3
Atom  39H    basis set group =>   3
Atom  40H    basis set group =>   3
Atom  41H    basis set group =>   3
Atom  42H    basis set group =>   3
Atom  43H    basis set group =>   3
Atom  44H    basis set group =>   3
Atom  45H    basis set group =>   3
Atom  46H    basis set group =>   3
-------------------------
ECP PARAMETER INFORMATION
-------------------------

 Group 1, Type I  ECP Def2-ECP (replacing 28 core electrons, lmax=3)

Atom   1I    ECP group =>   1



           ************************************************************
           *        Program running with 16 parallel MPI-processes    *
           *              working on a common directory               *
           ************************************************************
------------------------------------------------------------------------------
                             ORCA STARTUP CALCULATIONS
                           -- RI-GTO INTEGRALS CHOSEN --
------------------------------------------------------------------------------
------------------------------------------------------------------------------
                   ___                                                        
                  /   \      - P O W E R E D   B Y -                         
                 /     \                                                     
                 |  |  |   _    _      __       _____    __    __             
                 |  |  |  | |  | |    /  \     |  _  \  |  |  /  |          
                  \  \/   | |  | |   /    \    | | | |  |  | /  /          
                 / \  \   | |__| |  /  /\  \   | |_| |  |  |/  /          
                |  |  |   |  __  | /  /__\  \  |    /   |      \           
                |  |  |   | |  | | |   __   |  |    \   |  |\   \          
                \     /   | |  | | |  |  |  |  | |\  \  |  | \   \       
                 \___/    |_|  |_| |__|  |__|  |_| \__\ |__|  \__/        
                                                                              
                      - O R C A' S   B I G   F R I E N D -                    
                                      &                                       
                       - I N T E G R A L  F E E D E R -                       
                                                                              
 v1 FN, 2020, v2 2021, v3 2022-2024                                           
------------------------------------------------------------------------------


----------------------
SHARK INTEGRAL PACKAGE
----------------------

Number of atoms                             ...     47
Number of basis functions                   ...    445
Number of shells                            ...    211
Maximum angular momentum                    ...      2
Integral batch strategy                     ... SHARK/LIBINT Hybrid
RI-J (if used) integral strategy            ... SPLIT-RIJ (Revised 2003 algorithm where possible)
Printlevel                                  ...      1
Contraction scheme used                     ... SEGMENTED contraction
Prescreening option                         ... SCHWARTZ
   Thresh                                   ... 2.500e-11
   Tcut                                     ... 2.500e-12
   Tpresel                                  ... 2.500e-12 
Coulomb Range Separation                    ... NOT USED
Exchange Range Separation                   ... Long Range
   Mu parameter                             ... 3.000e-01
   Scaling (regular/separated)              ... 1.670e-01 8.330e-01
Multipole approximations                    ... NOT USED
Finite Nucleus Model                        ... NOT USED
CABS basis                                  ... NOT available
Auxiliary Coulomb fitting basis             ... AVAILABLE
   # of basis functions in Aux-J            ...   1362
   # of shells in Aux-J                     ...    458
   Maximum angular momentum in Aux-J        ...      4
Auxiliary J/K fitting basis                 ... NOT available
Auxiliary Correlation fitting basis         ... NOT available
Auxiliary 'external' fitting basis          ... NOT available

Checking pre-screening integrals            ... done (  0.0 sec) Dimension = 211
Check shell pair data                       ... done (  0.0 sec)
Shell pair information
Shell pair cut-off parameter TPreSel        ...   2.5e-12
Total number of shell pairs                 ...     22366
Shell pairs after pre-screening             ...     15365
Total number of primitive shell pairs       ...     80580
Primitive shell pairs kept                  ...     35389
          la=0 lb=0:   4992 shell pairs
          la=1 lb=0:   5764 shell pairs
          la=1 lb=1:   1716 shell pairs
          la=2 lb=0:   1736 shell pairs
          la=2 lb=1:   1003 shell pairs
          la=2 lb=2:    154 shell pairs

Calculating one electron integrals          ... done (  0.0 sec)
Calculating ECP integrals                   ... done (  0.1 sec)
done (  0.2 sec)
Calculating Nuclear repulsion               ... done (  0.0 sec) ENN=   2068.758918891345 Eh

Diagonalization of the overlap matrix:
Smallest eigenvalue                        ... 1.670e-04
Time for diagonalization                   ...    0.022 sec
Threshold for overlap eigenvalues          ... 1.000e-07
Number of eigenvalues below threshold      ... 0
Time for construction of square roots      ...    0.016 sec
Total time needed                          ...    0.055 sec

-------------------
DFT GRID GENERATION
-------------------

General Integration Accuracy     IntAcc      ... 4.959
Radial Grid Type                 RadialGrid  ... OptM3 with GC (2021)
Angular Grid (max. ang.)         AngularGrid ... 6 (Lebedev-590)
Angular grid pruning method      GridPruning ... 4 (adaptive)
Weight generation scheme         WeightScheme... mBecke (2022)
Basis function cutoff            BFCut       ... 1.0000e-11
Integration weight cutoff        WCut        ... 1.0000e-14
Partially contracted basis set               ... off
Rotationally invariant grid construction     ... off
Angular grids for H and He will be reduced by one unit

Total number of grid points                  ...   532249
Total number of batches                      ...     8341
Average number of points per batch           ...       63
Average number of grid points per atom       ...    11324

--------------------
COSX GRID GENERATION
--------------------

GRIDX 1
-------
General Integration Accuracy     IntAcc      ... 4.020
Radial Grid Type                 RadialGrid  ... OptM3 with GC (2021)
Angular Grid (max. ang.)         AngularGrid ... 2 (Lebedev-110)
Angular grid pruning method      GridPruning ... 4 (adaptive)
Weight generation scheme         WeightScheme... mBecke (2022)
Basis function cutoff            BFCut       ... 1.0000e-11
Integration weight cutoff        WCut        ... 1.0000e-14
Partially contracted basis set               ... on
Rotationally invariant grid construction     ... off
Angular grids for H and He will be reduced by one unit

Total number of grid points                  ...    60458
Total number of batches                      ...      498
Average number of points per batch           ...      121
Average number of grid points per atom       ...     1286
UseSFitting                                  ... on

GRIDX 2
-------
General Integration Accuracy     IntAcc      ... 4.338
Radial Grid Type                 RadialGrid  ... OptM3 with GC (2021)
Angular Grid (max. ang.)         AngularGrid ... 3 (Lebedev-194)
Angular grid pruning method      GridPruning ... 4 (adaptive)
Weight generation scheme         WeightScheme... mBecke (2022)
Basis function cutoff            BFCut       ... 1.0000e-11
Integration weight cutoff        WCut        ... 1.0000e-14
Partially contracted basis set               ... on
Rotationally invariant grid construction     ... off
Angular grids for H and He will be reduced by one unit

Total number of grid points                  ...   124753
Total number of batches                      ...     1000
Average number of points per batch           ...      124
Average number of grid points per atom       ...     2654
UseSFitting                                  ... on

GRIDX 3
-------
General Integration Accuracy     IntAcc      ... 4.871
Radial Grid Type                 RadialGrid  ... OptM3 with GC (2021)
Angular Grid (max. ang.)         AngularGrid ... 4 (Lebedev-302)
Angular grid pruning method      GridPruning ... 4 (adaptive)
Weight generation scheme         WeightScheme... mBecke (2022)
Basis function cutoff            BFCut       ... 1.0000e-11
Integration weight cutoff        WCut        ... 1.0000e-14
Partially contracted basis set               ... on
Rotationally invariant grid construction     ... off
Angular grids for H and He will be reduced by one unit

Total number of grid points                  ...   237487
Total number of batches                      ...     1878
Average number of points per batch           ...      126
Average number of grid points per atom       ...     5053
UseSFitting                                  ... on
Initializing property integral containers    ... done (  0.0 sec)

SHARK setup successfully completed in  10.1 seconds

Maximum memory used throughout the entire STARTUP-calculation: 127.9 MB


           ************************************************************
           *        Program running with 16 parallel MPI-processes    *
           *              working on a common directory               *
           ************************************************************
-------------------------------------------------------------------------------
                                 ORCA GUESS
                   Start orbitals & Density for SCF / CASSCF
-------------------------------------------------------------------------------

------------
SCF SETTINGS
------------
Hamiltonian:
 Density Functional     Method          .... DFT(GTOs)
 Exchange Functional    Exchange        .... WB97X-V
 Correlation Functional Correlation     .... WB97X-V
 Gradients option       PostSCFGGA      .... off
 Hybrid DFT is turned on
   Fraction HF Exchange ScalHFX         ....  0.167000
   Scaling of DF-GGA-X  ScalDFX         ....  0.000000
   Scaling of DF-GGA-C  ScalDFC         ....  1.000000
   Scaling of DF-LDA-C  ScalLDAC        ....  1.000000
   Perturbative correction              ....  0.000000
 Long-range corrected/Screened/Range-Separated Hybrid DFT is turned on
   Amount of maximum screened exact exchange              ....  0.833000
   Range separation parameter mu (erf(mu*r12)/r12)        ....  0.300000
 RI-approximation to the Coulomb term is turned on
   Number of AuxJ basis functions       .... 1362
   RIJ-COSX (HFX calculated with COS-X)).... on


General Settings:
 Integral files         IntName         .... /scratch/hbxr153/781493/crest_conformers_0000_optTS
 Hartree-Fock type      HFTyp           .... RHF
 Total Charge           Charge          ....    0
 Multiplicity           Mult            ....    1
 Number of Electrons    NEL             ....  182
 Basis Dimension        Dim             ....  445
 Nuclear Repulsion      ENuc            ....   2068.7589188913 Eh

Convergence Acceleration:
 AO-DIIS                CNVDIIS         .... on
   Start iteration      DIISMaxIt       ....    12
   Startup error        DIISStart       ....  0.200000
   # of expansion vecs  DIISMaxEq       ....     5
   Bias factor          DIISBfac        ....   1.050
   Max. coefficient     DIISMaxC        ....  10.000
 MO-DIIS                CNVKDIIS        .... off
 Trust-Rad. Augm. Hess. CNVTRAH         .... auto
   Auto Start mean grad. ratio tolernc. ....  1.125000
   Auto Start start iteration           ....    50
   Auto Start num. interpolation iter.  ....    10
   Max. Number of Micro iterations      ....    24
   Max. Number of Macro iterations      .... Maxiter - #DIIS iter
   Number of Davidson start vectors     ....     2
   Converg. threshold    (grad. norm)   ....   1.000e-05
   Grad. Scal. Fac. for Micro threshold ....   0.100
   Minimum threshold for Micro iter.    ....   1.000e-02
   NR start threshold (gradient norm)   ....   1.000e-04
   Initial trust radius                 ....   0.400
   Minimum AH scaling param. (alpha)    ....   1.000
   Maximum AH scaling param. (alpha)    .... 1000.000
   Quad. conv. algorithm                .... NR
   White noise on init. David. guess    .... on
   Maximum white noise                  ....   0.010
   Pseudo random numbers                .... off
   Inactive MOs                         .... canonical
   Orbital update algorithm             .... Taylor
   Preconditioner                       .... Diag
   Full preconditioner red. dimension   ....   250
 SOSCF                  CNVSOSCF        .... on
   Start iteration      SOSCFMaxIt      ....   150
   Startup grad/error   SOSCFStart      ....  0.003300
   Hessian update       SOSCFHessUp     .... L-BFGS
 Level Shifting         CNVShift        .... on
   Level shift para.    LevelShift      ....    0.2500
   Turn off err/grad.   ShiftErr        ....    0.0010
 Zerner damping         CNVZerner       .... off
 Static damping         CNVDamp         .... on
   Fraction old density DampFac         ....    0.7000
   Max. Damping (<1)    DampMax         ....    0.9800
   Min. Damping (>=0)   DampMin         ....    0.0000
   Turn off err/grad.   DampErr         ....    0.1000

SCF Procedure:
 Maximum # iterations   MaxIter         ....   125
 SCF integral mode      SCFMode         .... Direct
   Integral package                     .... SHARK and LIBINT hybrid scheme
 Reset frequency        DirectResetFreq ....    20
 Integral Threshold     Thresh          ....  2.500e-11 Eh
 Primitive CutOff       TCut            ....  2.500e-12 Eh

Convergence Tolerance:
 Convergence Check Mode ConvCheckMode   .... Total+1el-Energy
 Convergence forced     ConvForced      .... 0
 Energy Change          TolE            ....  1.000e-08 Eh
 1-El. energy change                    ....  1.000e-05 Eh
 Orbital Gradient       TolG            ....  1.000e-05
 Orbital Rotation angle TolX            ....  1.000e-05
 DIIS Error             TolErr          ....  5.000e-07

------------------------------
INITIAL GUESS: MODEL POTENTIAL
------------------------------
Loading Hartree-Fock densities                     ... done
Atomic calculation to generate a density for atom 1 (I  with ECP)
  Multiplicity assumed   :    2
  Atomic configuration   : 1s2 2s2 2p6 3s2 3p6 4s2 3d10 4p6 5s2 4d10 5p5 
  Number of open shells  : 1
  Command: /users/hbxr153/bin/orca_6_0_1/orca /scratch/hbxr153/781493/crest_conformers_0000_optTS_atom53.inp "" > /scratch/hbxr153/781493/crest_conformers_0000_optTS_atom53.out
Returned from the atomic calculation with res=0
Calculating cut-offs                               ... done
Initializing the effective Hamiltonian             ... done
Setting up the integral package (SHARK)            ... done
done (   0.1 sec)
Making the grid                                    ... done (   0.3 sec)
Mapping shells                                     ... done
Starting the XC term evaluation                    ... done (   0.1 sec)
  promolecular density results
     # of electrons  =    209.979656306
     EX              =   -219.662638215
     EC              =    -10.192186988
     EX+EC           =   -229.854825203
Transforming the Hamiltonian                       ... done (   0.1 sec)
done (   0.0 sec)
Back transforming the eigenvectors                 ... done (   0.0 sec)
done
                      ------------------
                      INITIAL GUESS DONE (   2.3 sec)
                      ------------------
             **** ENERGY FILE WAS UPDATED (/scratch/hbxr153/781493/crest_conformers_0000_optTS.en.tmp) ****
Finished Guess after   2.5 sec
Maximum memory used throughout the entire GUESS-calculation: 44.4 MB


           ************************************************************
           *        Program running with 16 parallel MPI-processes    *
           *              working on a common directory               *
           ************************************************************

-------------------------------------------------------------------------------------------
                                      ORCA LEAN-SCF
                              memory conserving SCF solver
-------------------------------------------------------------------------------------------

--------------------
CPCM SOLVATION MODEL
--------------------
CPCM parameters:
  Epsilon                                         ...      35.6880
  Refrac                                          ...       1.3442
  Rsolv                                           ...       1.3000
  Surface type                                    ... GAUSSIAN VDW
  Discretization scheme                           ... Constant charge density
    Threshold for H atoms                         ...       5.0000 (charges/Ang^2)
    Threshold for non-H atoms                     ...       5.0000 (charges/Ang^2)
  Epsilon function type                           ...         CPCM
Solvent:                                          ... ACETONITRILE
SMD-CDS solvent descriptors:
  Soln                                            ...       1.3442
  Soln25                                          ...       1.3416
  Sola                                            ...       0.0700
  Solb                                            ...       0.3200
  Solg                                            ...      41.2500
  Solc                                            ...       0.0000
  Solh                                            ...       0.0000
Radii:
  Scheme                                          ... Element-dependent radii
  Radius for C  used is    3.4960 Bohr (=   1.8500 Ang.)
  Radius for I  used is    3.7417 Bohr (=   1.9800 Ang.)
  Radius for H  used is    2.2677 Bohr (=   1.2000 Ang.)
  Radius for B  used is    3.6283 Bohr (=   1.9200 Ang.)
  Radius for O  used is    4.0969 Bohr (=   2.1680 Ang.)
  Radius for N  used is    3.5716 Bohr (=   1.8900 Ang.)
Calculating surface                               ...        done! (  0.0s)
Cavity surface points                             ...         3374
Cavity Volume                                     ...    2460.9003
Cavity Surface-area                               ...    1333.7321
done! (  0.1s)
Performing Cholesky decomposition & store         ...        done! (  0.3s)
Overall time for CPCM initialization              ...                 0.4s

----------------------------------------D-I-I-S--------------------------------------------
Iteration    Energy (Eh)           Delta-E    RMSDP     MaxDP     DIISErr   Damp  Time(sec)
-------------------------------------------------------------------------------------------
               ***  Starting incremental Fock matrix formation  ***
    1    -1227.4128815929357188     0.00e+00  1.18e-03  4.74e-02  2.27e-01  0.700   8.8
    2    -1227.4779028913699221    -6.50e-02  9.41e-04  3.86e-02  1.61e-01  0.700   4.4
                               ***Turning on AO-DIIS***
    3    -1227.5144808172790363    -3.66e-02  6.29e-04  2.88e-02  1.16e-01  0.700   4.3
    4    -1227.5379000755856396    -2.34e-02  4.82e-04  2.14e-02  8.16e-02  0.700   4.4
    5    -1227.5542445712358131    -1.63e-02  1.24e-03  5.24e-02  5.69e-02  0.000   4.1
                              *** Initializing SOSCF ***
---------------------------------------S-O-S-C-F--------------------------------------
Iteration    Energy (Eh)           Delta-E    RMSDP     MaxDP     MaxGrad    Time(sec)
--------------------------------------------------------------------------------------
    6    -1227.5939919839070171    -3.97e-02  1.14e-04  8.03e-03  2.46e-03     4.4
               *** Restarting incremental Fock matrix formation ***
    7    -1227.5942470964937456    -2.55e-04  7.32e-05  3.68e-03  1.83e-03     8.6
    8    -1227.5943488232665004    -1.02e-04  7.66e-05  5.33e-03  7.09e-04     6.3
    9    -1227.5943737127017812    -2.49e-05  1.70e-05  1.17e-03  2.91e-04     6.0
   10    -1227.5943795926405073    -5.88e-06  7.04e-06  5.16e-04  1.04e-04     5.3
   11    -1227.5943802502583821    -6.58e-07  2.89e-06  1.97e-04  4.71e-05     4.9
   12    -1227.5943803713853413    -1.21e-07  1.73e-06  1.17e-04  2.52e-05     4.1
   13    -1227.5943804042121883    -3.28e-08  6.79e-07  2.41e-05  8.11e-06     3.7
   14    -1227.5943804113649094    -7.15e-09  2.95e-07  1.43e-05  3.87e-06     3.3
                 **** Energy Check signals convergence ****

               *****************************************************
               *                     SUCCESS                       *
               *           SCF CONVERGED AFTER  14 CYCLES          *
               *****************************************************

 done (   13.319 sec)
Old exchange energy                            :    -48.504493493 Eh
New exchange energy                            :    -48.504504294 Eh
Exchange energy change after final integration :     -0.000010802 Eh
Total energy after final integration           :  -1227.594391213 Eh

SMD CDS free energy correction energy :                -1.76264     Kcal/mol
Total Energy after SMD CDS correction =             -1227.597200160 Eh
             **** ENERGY FILE WAS UPDATED (/scratch/hbxr153/781493/crest_conformers_0000_optTS.en.tmp) ****

----------------
TOTAL SCF ENERGY
----------------

Total Energy       :      -1227.59720016014762 Eh          -33404.61807 eV

Components:
Nuclear Repulsion  :       2068.75891889134527 Eh           56293.79210 eV
Electronic Energy  :      -3296.30849274728735 Eh          -89697.11420 eV
One Electron Energy:      -5893.39767166336787 Eh         -160367.50357 eV
Two Electron Energy:       2597.08917891608053 Eh           70670.38937 eV
CPCM Dielectric    :         -0.04480655542270 Eh              -1.21925 eV
SMD CDS (Gcds)     :         -0.00280894685888 Eh              -0.07644 eV

Virial components:
Potential Energy   :      -2259.89242578655194 Eh          -61494.79924 eV
Kinetic Energy     :       1032.29522562640409 Eh           28090.18117 eV
Virial Ratio       :          2.18919197695139

DFT components:
N(Alpha)           :       91.000005001911 electrons
N(Beta)            :       91.000005001911 electrons
N(Total)           :      182.000010003821 electrons
E(X)               :      -99.245248014604 Eh       
E(C)               :       -7.758188641123 Eh       
E(XC)              :     -107.003436655727 Eh       

CPCM Solvation Model Properties:
Surface-charge          :         -0.08266155985878
Corrected charge        :          0.00000000000000
Outlying charge corr.   :          0.00034340133474 Eh               0.00934 eV
Free-energy (cav+disp)  :         -0.00280894685888 Eh              -0.07644 eV

---------------
SCF CONVERGENCE
---------------

  Last Energy change         ...    7.1527e-09  Tolerance :   1.0000e-08
  Last MAX-Density change    ...    1.4313e-05  Tolerance :   1.0000e-07
  Last RMS-Density change    ...    2.9546e-07  Tolerance :   5.0000e-09
  Last DIIS Error            ...    2.4573e-03  Tolerance :   5.0000e-07
  Last Orbital Gradient      ...    3.8677e-06  Tolerance :   1.0000e-05
  Last Orbital Rotation      ...    1.1205e-05  Tolerance :   1.0000e-05


----------------
ORBITAL ENERGIES
----------------

  NO   OCC          E(Eh)            E(eV) 
   0   2.0000     -19.254414      -523.9392 
   1   2.0000     -19.222357      -523.0669 
   2   2.0000     -19.219509      -522.9894 
   3   2.0000     -14.462260      -393.5381 
   4   2.0000     -10.362705      -281.9836 
   5   2.0000     -10.353992      -281.7464 
   6   2.0000     -10.342053      -281.4216 
   7   2.0000     -10.341346      -281.4023 
   8   2.0000     -10.340932      -281.3911 
   9   2.0000     -10.325492      -280.9709 
  10   2.0000     -10.322089      -280.8783 
  11   2.0000     -10.305133      -280.4169 
  12   2.0000     -10.288765      -279.9715 
  13   2.0000     -10.283752      -279.8351 
  14   2.0000     -10.276954      -279.6501 
  15   2.0000     -10.272820      -279.5377 
  16   2.0000     -10.272451      -279.5276 
  17   2.0000     -10.271840      -279.5110 
  18   2.0000     -10.271564      -279.5035 
  19   2.0000     -10.269485      -279.4469 
  20   2.0000      -6.896532      -187.6642 
  21   2.0000      -6.882010      -187.2690 
  22   2.0000      -4.924978      -134.0155 
  23   2.0000      -4.918091      -133.8281 
  24   2.0000      -4.918071      -133.8275 
  25   2.0000      -1.977860       -53.8203 
  26   2.0000      -1.976094       -53.7723 
  27   2.0000      -1.976088       -53.7721 
  28   2.0000      -1.970383       -53.6168 
  29   2.0000      -1.970381       -53.6168 
  30   2.0000      -1.200409       -32.6648 
  31   2.0000      -1.184782       -32.2396 
  32   2.0000      -1.108601       -30.1666 
  33   2.0000      -1.074781       -29.2463 
  34   2.0000      -0.984620       -26.7929 
  35   2.0000      -0.930935       -25.3320 
  36   2.0000      -0.900851       -24.5134 
  37   2.0000      -0.895924       -24.3793 
  38   2.0000      -0.870863       -23.6974 
  39   2.0000      -0.843066       -22.9410 
  40   2.0000      -0.827342       -22.5131 
  41   2.0000      -0.824867       -22.4458 
  42   2.0000      -0.812646       -22.1132 
  43   2.0000      -0.793663       -21.5967 
  44   2.0000      -0.778834       -21.1932 
  45   2.0000      -0.752938       -20.4885 
  46   2.0000      -0.737797       -20.0765 
  47   2.0000      -0.719325       -19.5738 
  48   2.0000      -0.681714       -18.5504 
  49   2.0000      -0.669993       -18.2314 
  50   2.0000      -0.656859       -17.8741 
  51   2.0000      -0.647068       -17.6076 
  52   2.0000      -0.636385       -17.3169 
  53   2.0000      -0.618376       -16.8269 
  54   2.0000      -0.588435       -16.0121 
  55   2.0000      -0.581197       -15.8152 
  56   2.0000      -0.578464       -15.7408 
  57   2.0000      -0.562320       -15.3015 
  58   2.0000      -0.557831       -15.1794 
  59   2.0000      -0.556537       -15.1441 
  60   2.0000      -0.551173       -14.9982 
  61   2.0000      -0.548865       -14.9354 
  62   2.0000      -0.546073       -14.8594 
  63   2.0000      -0.539936       -14.6924 
  64   2.0000      -0.533169       -14.5083 
  65   2.0000      -0.524566       -14.2742 
  66   2.0000      -0.515479       -14.0269 
  67   2.0000      -0.504389       -13.7251 
  68   2.0000      -0.503300       -13.6955 
  69   2.0000      -0.501171       -13.6376 
  70   2.0000      -0.496462       -13.5094 
  71   2.0000      -0.488617       -13.2959 
  72   2.0000      -0.482937       -13.1414 
  73   2.0000      -0.475767       -12.9463 
  74   2.0000      -0.468098       -12.7376 
  75   2.0000      -0.465399       -12.6642 
  76   2.0000      -0.459905       -12.5147 
  77   2.0000      -0.451994       -12.2994 
  78   2.0000      -0.447355       -12.1731 
  79   2.0000      -0.439444       -11.9579 
  80   2.0000      -0.431678       -11.7466 
  81   2.0000      -0.427211       -11.6250 
  82   2.0000      -0.424362       -11.5475 
  83   2.0000      -0.416214       -11.3258 
  84   2.0000      -0.405925       -11.0458 
  85   2.0000      -0.372734       -10.1426 
  86   2.0000      -0.356605        -9.7037 
  87   2.0000      -0.334361        -9.0984 
  88   2.0000      -0.334326        -9.0975 
  89   2.0000      -0.322425        -8.7736 
  90   2.0000      -0.294544        -8.0150 
  91   0.0000       0.029287         0.7969 
  92   0.0000       0.055777         1.5178 
  93   0.0000       0.082036         2.2323 
  94   0.0000       0.134333         3.6554 
  95   0.0000       0.139753         3.8029 
  96   0.0000       0.166446         4.5292 
[...]
121:   3078.58   0.006407   32.38  0.000649  ( 0.001029 -0.018855  0.017114)
122:   3086.64   0.012848   64.93  0.001299  ( 0.030313 -0.005078  0.018822)
123:   3144.04   0.002948   14.90  0.000293  ( 0.007911 -0.011795  0.009534)
124:   3164.86   0.001946    9.83  0.000192  ( 0.013828 -0.000677  0.000407)
125:   3165.04   0.000867    4.38  0.000085  ( 0.007312  0.005268 -0.002069)
126:   3166.11   0.001278    6.46  0.000126  ( 0.001941 -0.001735  0.010918)
127:   3168.26   0.004674   23.62  0.000460  ( 0.007409 -0.010439 -0.017219)
128:   3168.67   0.000220    1.11  0.000022  ( 0.000799  0.004212 -0.001800)
129:   3168.69   0.011236   56.78  0.001107  (-0.011979  0.014971  0.027183)
130:   3177.29   0.001024    5.17  0.000101  (-0.000958 -0.008926 -0.004466)
131:   3178.11   0.009003   45.50  0.000884  ( 0.024722  0.016513 -0.000344)
132:   3182.43   0.004605   23.27  0.000452  (-0.005416 -0.019442  0.006650)
133:   3188.51   0.004651   23.50  0.000455  (-0.017971  0.007360 -0.008834)
134:   3188.68   0.003864   19.53  0.000378  ( 0.002236  0.018002 -0.007007)
135:   3221.80   0.000505    2.55  0.000049  ( 0.005846  0.002149 -0.003180)
136:   3228.16   0.000824    4.16  0.000080  (-0.007741 -0.000767  0.004373)
137:   3236.37   0.001305    6.60  0.000126  ( 0.003201 -0.008402 -0.006708)
138:   3394.90   0.004210   21.28  0.000387  ( 0.017015  0.009076 -0.003887)
139:   3397.55   0.003861   19.51  0.000355  (-0.003665  0.007234  0.016995)
140:   3579.16   0.021631  109.31  0.001886  (-0.014715 -0.003794 -0.040682)

* The epsilon (eps) is given for a Dirac delta lineshape.
** The dipole moment derivative (T) already includes vibrational overlap.

The first frequency considered to be a vibration is 7
The total number of vibrations considered is 134


--------------------------
THERMOCHEMISTRY AT 298.15K
--------------------------

Temperature         ...   298.15 K
Pressure            ...     1.00 atm
Total Mass          ...   417.09 AMU
Quasi RRHO          ...     True
Cut-Off Frequency   ...     1.00 cm^-1

Throughout the following assumptions are being made:
  (1) The electronic state is orbitally nondegenerate
  (2) There are no thermally accessible electronically excited states
  (3) Hindered rotations indicated by low frequency modes are not
      treated as such but are treated as vibrations and this may
      cause some error
  (4) All equations used are the standard statistical mechanics
      equations for an ideal gas
  (5) All vibrations are strictly harmonic

freq.       7.64  E(vib)   ...       0.58 
freq.      16.09  E(vib)   ...       0.57 
freq.      36.26  E(vib)   ...       0.54 
freq.      46.70  E(vib)   ...       0.53 
freq.      73.22  E(vib)   ...       0.49 
freq.      97.20  E(vib)   ...       0.46 
freq.     108.04  E(vib)   ...       0.45 
freq.     110.51  E(vib)   ...       0.45 
freq.     125.41  E(vib)   ...       0.43 
freq.     147.35  E(vib)   ...       0.41 
freq.     177.53  E(vib)   ...       0.37 
freq.     197.08  E(vib)   ...       0.35 
freq.     198.44  E(vib)   ...       0.35 
freq.     221.63  E(vib)   ...       0.33 
freq.     233.69  E(vib)   ...       0.32 
freq.     236.63  E(vib)   ...       0.32 
freq.     248.94  E(vib)   ...       0.31 
freq.     269.25  E(vib)   ...       0.29 
freq.     282.22  E(vib)   ...       0.28 
freq.     299.94  E(vib)   ...       0.26 
freq.     303.00  E(vib)   ...       0.26 
freq.     316.31  E(vib)   ...       0.25 
freq.     323.64  E(vib)   ...       0.25 
freq.     326.35  E(vib)   ...       0.24 
freq.     352.05  E(vib)   ...       0.23 
freq.     369.01  E(vib)   ...       0.21 
freq.     371.47  E(vib)   ...       0.21 
freq.     388.55  E(vib)   ...       0.20 
freq.     404.97  E(vib)   ...       0.19 
freq.     450.86  E(vib)   ...       0.17 
freq.     476.23  E(vib)   ...       0.15 
freq.     498.49  E(vib)   ...       0.14 
freq.     513.19  E(vib)   ...       0.13 
freq.     535.31  E(vib)   ...       0.13 
freq.     540.09  E(vib)   ...       0.12 
freq.     567.25  E(vib)   ...       0.11 
freq.     575.95  E(vib)   ...       0.11 
freq.     593.59  E(vib)   ...       0.10 
freq.     603.27  E(vib)   ...       0.10 
freq.     674.62  E(vib)   ...       0.08 
freq.     692.23  E(vib)   ...       0.07 
freq.     698.39  E(vib)   ...       0.07 
freq.     702.09  E(vib)   ...       0.07 
freq.     780.22  E(vib)   ...       0.05 
freq.     798.15  E(vib)   ...       0.05 
freq.     859.07  E(vib)   ...       0.04 
freq.     864.93  E(vib)   ...       0.04 
freq.     882.00  E(vib)   ...       0.04 
freq.     901.22  E(vib)   ...       0.03 
freq.     905.64  E(vib)   ...       0.03 
freq.     934.27  E(vib)   ...       0.03 
freq.     948.14  E(vib)   ...       0.03 
freq.     949.86  E(vib)   ...       0.03 
freq.     964.18  E(vib)   ...       0.03 
freq.     983.42  E(vib)   ...       0.02 
freq.     990.70  E(vib)   ...       0.02 
freq.    1006.90  E(vib)   ...       0.02 
freq.    1008.06  E(vib)   ...       0.02 
freq.    1015.79  E(vib)   ...       0.02 
freq.    1016.05  E(vib)   ...       0.02 
freq.    1022.00  E(vib)   ...       0.02 
freq.    1031.22  E(vib)   ...       0.02 
freq.    1051.62  E(vib)   ...       0.02 
freq.    1069.88  E(vib)   ...       0.02 
freq.    1089.75  E(vib)   ...       0.02 
freq.    1123.44  E(vib)   ...       0.01 
freq.    1131.86  E(vib)   ...       0.01 
freq.    1137.83  E(vib)   ...       0.01 
freq.    1147.80  E(vib)   ...       0.01 
freq.    1172.59  E(vib)   ...       0.01 
freq.    1183.98  E(vib)   ...       0.01 
freq.    1201.49  E(vib)   ...       0.01 
freq.    1231.09  E(vib)   ...       0.01 
freq.    1257.50  E(vib)   ...       0.01 
freq.    1260.11  E(vib)   ...       0.01 
freq.    1272.65  E(vib)   ...       0.01 
freq.    1290.75  E(vib)   ...       0.01 
freq.    1292.52  E(vib)   ...       0.01 
freq.    1320.53  E(vib)   ...       0.01 
freq.    1323.37  E(vib)   ...       0.01 
freq.    1343.21  E(vib)   ...       0.01 
freq.    1356.54  E(vib)   ...       0.01 
freq.    1358.53  E(vib)   ...       0.01 
freq.    1362.39  E(vib)   ...       0.01 
freq.    1385.52  E(vib)   ...       0.00 
freq.    1395.94  E(vib)   ...       0.00 
freq.    1398.15  E(vib)   ...       0.00 
freq.    1402.33  E(vib)   ...       0.00 
freq.    1403.07  E(vib)   ...       0.00 
freq.    1404.79  E(vib)   ...       0.00 
freq.    1410.95  E(vib)   ...       0.00 
freq.    1429.88  E(vib)   ...       0.00 
freq.    1442.66  E(vib)   ...       0.00 
freq.    1444.08  E(vib)   ...       0.00 
freq.    1448.00  E(vib)   ...       0.00 
freq.    1453.48  E(vib)   ...       0.00 
freq.    1455.71  E(vib)   ...       0.00 
freq.    1457.59  E(vib)   ...       0.00 
freq.    1467.09  E(vib)   ...       0.00 
freq.    1469.74  E(vib)   ...       0.00 
freq.    1470.29  E(vib)   ...       0.00 
freq.    1471.10  E(vib)   ...       0.00 
freq.    1476.91  E(vib)   ...       0.00 
freq.    1478.61  E(vib)   ...       0.00 
freq.    1487.97  E(vib)   ...       0.00 
freq.    1526.68  E(vib)   ...       0.00 
freq.    1573.37  E(vib)   ...       0.00 
freq.    1681.04  E(vib)   ...       0.00 
freq.    1699.74  E(vib)   ...       0.00 
freq.    3066.15  E(vib)   ...       0.00 
freq.    3070.47  E(vib)   ...       0.00 
freq.    3071.24  E(vib)   ...       0.00 
freq.    3076.21  E(vib)   ...       0.00 
freq.    3078.51  E(vib)   ...       0.00 
freq.    3078.58  E(vib)   ...       0.00 
freq.    3086.64  E(vib)   ...       0.00 
freq.    3144.04  E(vib)   ...       0.00 
freq.    3164.86  E(vib)   ...       0.00 
freq.    3165.04  E(vib)   ...       0.00 
freq.    3166.11  E(vib)   ...       0.00 
freq.    3168.26  E(vib)   ...       0.00 
freq.    3168.67  E(vib)   ...       0.00 
freq.    3168.69  E(vib)   ...       0.00 
freq.    3177.29  E(vib)   ...       0.00 
freq.    3178.11  E(vib)   ...       0.00 
freq.    3182.43  E(vib)   ...       0.00 
freq.    3188.51  E(vib)   ...       0.00 
freq.    3188.68  E(vib)   ...       0.00 
freq.    3221.80  E(vib)   ...       0.00 
freq.    3228.16  E(vib)   ...       0.00 
freq.    3236.37  E(vib)   ...       0.00 
freq.    3394.90  E(vib)   ...       0.00 
freq.    3397.55  E(vib)   ...       0.00 
freq.    3579.16  E(vib)   ...       0.00 

------------
INNER ENERGY
------------

The inner energy is: U= E(el) + E(ZPE) + E(vib) + E(rot) + E(trans)
    E(el)   - is the total energy from the electronic structure calculation
              = E(kin-el) + E(nuc-el) + E(el-el) + E(nuc-nuc)
    E(ZPE)  - the the zero temperature vibrational energy from the frequency calculation
    E(vib)  - the the finite temperature correction to E(ZPE) due to population
              of excited vibrational states
    E(rot)  - is the rotational thermal energy
    E(trans)- is the translational thermal energy

Summary of contributions to the inner energy U:
Electronic energy                ...  -1227.70347832 Eh
Zero point energy                ...      0.40012165 Eh     251.08 kcal/mol
Thermal vibrational correction   ...      0.02007497 Eh      12.60 kcal/mol
Thermal rotational correction    ...      0.00141627 Eh       0.89 kcal/mol
Thermal translational correction ...      0.00141627 Eh       0.89 kcal/mol
-----------------------------------------------------------------------
Total thermal energy                  -1227.28044916 Eh


Summary of corrections to the electronic energy:
(perhaps to be used in another calculation)
Total thermal correction                  0.02290751 Eh      14.37 kcal/mol
Non-thermal (ZPE) correction              0.40012165 Eh     251.08 kcal/mol
-----------------------------------------------------------------------
Total correction                          0.42302917 Eh     265.45 kcal/mol


--------
ENTHALPY
--------

The enthalpy is H = U + kB*T
                kB is Boltzmann's constant
Total thermal energy              ...  -1227.28044916 Eh 
Thermal Enthalpy correction       ...      0.00094421 Eh       0.59 kcal/mol
-----------------------------------------------------------------------
Total Enthalpy                    ...  -1227.27950495 Eh


Note: Only C1 symmetry has been detected, increase convergence thresholds 
      if your molecule has a higher symmetry. Symmetry factor of 1.0 is   
      used for the rotational entropy correction. 
 

Note: Rotational entropy computed according to Herzberg 
Infrared and Raman Spectra, Chapter V,1, Van Nostrand Reinhold, 1945 
Point Group:  C1, Symmetry Number:   1  
Rotational constants in cm-1:     0.008985     0.002759     0.002303 

Vibrational entropy computed according to the QRRHO of S. Grimme
Chem.Eur.J. 2012 18 9955 using a reference frequency of 100.0 cm-1


-------
ENTROPY
-------

The entropy contributions are T*S = T*(S(el)+S(vib)+S(rot)+S(trans))
     S(el)   - electronic entropy
     S(vib)  - vibrational entropy
     S(rot)  - rotational entropy
     S(trans)- translational entropy
The entropies will be listed as multiplied by the temperature to get
units of energy

Electronic entropy                ...      0.00000000 Eh      0.00 kcal/mol
Vibrational entropy               ...      0.03601843 Eh     22.60 kcal/mol
Rotational entropy                ...      0.01738458 Eh     10.91 kcal/mol
Translational entropy             ...      0.02089386 Eh     13.11 kcal/mol
-----------------------------------------------------------------------
Final entropy term                ...      0.07429687 Eh     46.62 kcal/mol

In case the symmetry of your molecule has not been determined correctly
or in case you have a reason to use a different symmetry number we print 
out the resulting rotational entropy values for sn=1,12:

 non-linear molecules -----------------------------------
|  sn= 1 | S(rot)=       0.01738458 Eh     10.91 kcal/mol|
|  sn= 2 | S(rot)=       0.01673012 Eh     10.50 kcal/mol|
|  sn= 3 | S(rot)=       0.01634729 Eh     10.26 kcal/mol|
|  sn= 4 | S(rot)=       0.01607566 Eh     10.09 kcal/mol|
|  sn= 5 | S(rot)=       0.01586497 Eh      9.96 kcal/mol|
|  sn= 6 | S(rot)=       0.01569283 Eh      9.85 kcal/mol|
|  sn= 7 | S(rot)=       0.01554728 Eh      9.76 kcal/mol|
|  sn= 8 | S(rot)=       0.01542121 Eh      9.68 kcal/mol|
|  sn= 9 | S(rot)=       0.01531000 Eh      9.61 kcal/mol|
|  sn=10 | S(rot)=       0.01521052 Eh      9.54 kcal/mol|
|  sn=11 | S(rot)=       0.01512053 Eh      9.49 kcal/mol|
|  sn=12 | S(rot)=       0.01503837 Eh      9.44 kcal/mol|
 linear molecules ---------------------------------------
|  Dinfh | S(rot)=       0.01106022 Eh      6.94 kcal/mol|
|  Cinfv | S(rot)=       0.01171468 Eh      7.35 kcal/mol|
 --------------------------------------------------------


-------------------
GIBBS FREE ENERGY
-------------------

The Gibbs free energy is G = H - T*S

Total enthalpy                    ...  -1227.27950495 Eh 
Total entropy correction          ...     -0.07429687 Eh    -46.62 kcal/mol
-----------------------------------------------------------------------
Final Gibbs free energy         ...  -1227.35380182 Eh

For completeness - the Gibbs free energy minus the electronic energy
G-E(el)                           ...      0.34967650 Eh    219.42 kcal/mol


Maximum memory used throughout the entire PROP-calculation: 325.1 MB

--------------------------------
SUGGESTED CITATIONS FOR THIS RUN
--------------------------------

Below you find a list of papers that are relevant to this ORCA run
We neither can nor want to force you to cite these papers, but we appreciate if you do
You receive ORCA, which is the product of decades of hard work by many enthusiastic individuals, for free
The only thing we kindly ask in return is that you cite our papers,
We deeply appreciate it, if you show your appreciation for ORCA by not just citing the generic ORCA reference.

Please note that relegating all ORCA citations to the supporting information does *not* help us.
SI sections are not indexed - citations you put there will not count into any citation statistics
But we need these citations in order to attract the funding resources that allow us to do what we are doing

Therefore, if you are a happy ORCA user, please consider citing a few of the papers listed below in the main body of your paper

In addition to the list printed below, the program has created the file /scratch/hbxr153/781493/crest_conformers_0000_optTS.bibtex that contains the list in bibtex format
You can import this file easily into all common literature databanks and citation aid programs


List of essential papers. We consider these as the minimum necessary citations

  1. Neese,F.
     Software update: the ORCA program system, version 5.0
     WIRES Comput. Molec. Sci., 2022 12(1)e1606
     doi.org/10.1002/wcms.1606

List of papers to cite with high priority. The work reported in these papers was absolutely
necessary for this run to complete.
Our perspective: the developers of density functionals and basis sets usually get cited in chemistry papers
Good! But without the algorithms to do something with them, the functionals or basis sets would not do anything.
Hence, in our opinion, the algorithm design and method developments papers are equally worthy of getting cited

  1. Neese,F.
     An improvement of the resolution of the identity approximation for the formation of the Coulomb matrix
     J. Comp. Chem., 2003 24(14)1740-1747
     doi.org/10.1002/jcc.10318
  2. Neese,F.; Wennmohs,F.; Hansen,A.; Becker,U.
     Efficient, approximate and parallel Hartree-Fock and hybrid DFT calculations. A 'chain-of-spheres' algorithm for the Hartree-Fock exchange
     Chem. Phys., 2009 356(1-3)98-109
     doi.org/10.1016/j.chemphys.2008.10.036
  3. Bykov,D.; Petrenko,T.; Izsak,R.; Kossmann,S.; Becker,U.; Valeev,E.; Neese,F.
     Efficient implementation of the analytic second derivatives of Hartree-Fock and hybrid DFT energies: a detailed analysis of different approximations
     Molec. Phys., 2015 113 1961-1977
     doi.org/10.1080/00268976.2015.1025114
  4. Garcia-Rates,M.; Neese,F.
     Efficient implementation of the analytical second derivatives of hartree-fock and hybrid DFT energies within the framework of the conductor-like polarizable continuum model
     J. Comput. Chem., 2019 40 1816-1828
     doi.org/10.1002/jcc.25833
  5. Garcia-Rates,M.; Neese,F.
     Effect of the Solute Cavity on the Solvation Energy and its Derivatives within the Framework of the Gaussian Charge Scheme
     J. Comput. Chem., 2020 41 922-939
     doi.org/10.1002/jcc.26139
  6. Helmich-Paris,B.; de Souza,B.; Neese,F.; Izsák,R.
     An improved chain of spheres for exchange algorithm
     J. Chem. Phys., 2021 155 104109
     doi.org/doi: 10.1063/5.0058766.
  7. Neese,F.
     The SHARK Integral Generation and Digestion System
     J. Comp. Chem., 2022  1-16
     doi.org/10.1002/jcc.26942
  8. Caldeweyher,E.; Bannwarth,C.; Grimme,S.
     Extension of the D3 dispersion coefficient model
     J. Chem. Phys., 2017 147 034112
     doi.org/10.1063/1.4993215
  9. Caldeweyher,E.; Ehlert,S.; Hansen,A.; Neugebauer,H.; Spicher,S.; Bannwarth,C.; Grimme,S.
     A generally applicable atomic-charge dependent London dispersion correction
     J. Chem. Phys., 2019 150 154122
     doi.org/10.1063/1.5090222
 10. Caldeweyher,E.; Mewes,J.; Ehlert,S.; Grimme,S.
     Extension and evaluation of the D4 London-dispersion model for periodic systems
     Phys. Chem. Chem. Phys., 2020 22(16)8499-8512
     doi.org/10.1039/D0CP00502A
 11. Wittmann,L.; Gordiy,I.; Friede,M.; Helmich-Paris,B.; Grimme,S.; Hansen,A.; Bursch,M.
     Extension of the D3 and D4 London Dispersion Corrections to the full Actinides Series
     Phys. Chem. Chem. Phys., 2024 26(32)21379-21394
     doi.org/https://doi.org/10.1039/D4CP01514B 

List of suggested additional citations. These are papers that are important in the 'surrounding' of 
of this run, or papers that preceded the highly important papers. If you like your results we are grateful for a citation.

  1. Izsak,R.; Neese,F.
     An overlap fitted chain of spheres exchange method
     J. Chem. Phys., 2011 135 144105
     doi.org/10.1063/1.3646921
  2. Izsak,R.; Hansen,A.; Neese,F.
     The resolution of identity and chain of spheres approximations for the LPNO-CCSD singles Fock term
     Molec. Phys., 2012 110 2413-2417
     doi.org/10.1080/00268976.2012.687466
  3. Neese,F.
     The ORCA program system
     WIRES Comput. Molec. Sci., 2012 2(1)73-78
     doi.org/10.1002/wcms.81
  4. Izsak,R.; Neese,F.; Klopper,W.
     Robust fitting techniques in the chain of spheres approximation to the Fock exchange: The role of the complementary space
     J. Chem. Phys., 2013 139 
     doi.org/10.1063/1.4819264
  5. Neese,F.
     Software update: the ORCA program system, version 4.0
     WIRES Comput. Molec. Sci., 2018 8(1)1-6
     doi.org/10.1002/wcms.1327
  6. Neese,F.; Wennmohs,F.; Becker,U.; Riplinger,C.
     The ORCA quantum chemistry program package
     J. Chem. Phys., 2020 152 Art. No. L224108
     doi.org/10.1063/5.0004608

List of optional additional citations

  1. Neese,F.
     Approximate second-order SCF convergence for spin unrestricted wavefunctions
     Chem. Phys. Lett., 2000 325(1-3)93-98
     doi.org/10.1016/s0009-2614(00)00662-x

Timings for individual modules:

Sum of individual times          ...     1879.956 sec (=  31.333 min)
Startup calculation              ...       72.706 sec (=   1.212 min)   3.9 %
SCF iterations                   ...      437.041 sec (=   7.284 min)  23.2 %
Property integrals               ...      475.375 sec (=   7.923 min)  25.3 %
SCF Response                     ...      497.843 sec (=   8.297 min)  26.5 %
Property calculations            ...      265.869 sec (=   4.431 min)  14.1 %
SCF Gradient evaluation          ...      130.544 sec (=   2.176 min)   6.9 %
Geometry relaxation              ...        0.578 sec (=   0.010 min)   0.0 %
                             ****ORCA TERMINATED NORMALLY****
TOTAL RUN TIME: 0 days 0 hours 31 minutes 31 seconds 225 msec
